 Q-Chem 6.0 (devel), Q-Chem, Inc., Pleasanton, CA (2022)
 Q-Chem 6.0.1 for Intel X86 EM64T Linux

User input:
--------------------------------------------------------------
$comment
 TD-DFT/TDA CALCULATION
$end

$molecule
0 1
O        0.000000     0.000000     0.000000
H        0.758602     0.000000     0.504284
H       -0.758602     0.000000     0.504284
$end

$rem
!**REFERENCE***
JOBTYPE            SP
EXCHANGE           B3LYP
CORRELATION        NONE
BASIS              STO-3G
CIS_N_ROOTS        5
!CIS_SINGLETS      true
!CIS_TRIPLETS      true
CALC_SOC           2 !not available in doublets in TDDFT
STS_ANGMOM        true !orbit. ang. moment. between states
$end

--------------------------------------------------------------

             Standard Nuclear Orientation (Angstroms)
    I     Atom           X                Y                Z
 ----------------------------------------------------------------
    1      O       0.0000000000     0.0000000000     0.1008568000
    2      H      -0.7586020000    -0.0000000000    -0.4034272000
    3      H       0.7586020000     0.0000000000    -0.4034272000
 ----------------------------------------------------------------

    7     -75.2893407459      5.59e-09  Convergence criterion met
 Total energy in the final basis set =      -75.2893407459

         TDDFT/TDA Excitation Energies
 ---------------------------------------------------

 Excited state   1: excitation energy (eV) =   10.5823
 Total energy for state  1:                   -74.90044744 au
    Multiplicity: Triplet
    Trans. Mom.:  0.0000 X   0.0000 Y   0.0000 Z
    Strength   :     0.0000000000
    D(    5) --> V(    1) amplitude =  1.0000

 Excited state   2: excitation energy (eV) =   12.4592
 Total energy for state  2:                   -74.83147211 au
    Multiplicity: Triplet
    Trans. Mom.:  0.0000 X   0.0000 Y   0.0000 Z
    Strength   :     0.0000000000
    D(    4) --> V(    1) amplitude =  0.9965

 Excited state   3: excitation energy (eV) =   12.6550
 Total energy for state  3:                   -74.82427797 au
    Multiplicity: Singlet
    Trans. Mom.:  0.0000 X   0.1097 Y  -0.0000 Z
    Strength   :     0.0037338842
    D(    5) --> V(    1) amplitude =  1.0000

 Excited state   4: excitation energy (eV) =   14.5259
 Total energy for state  4:                   -74.75552488 au
    Multiplicity: Singlet
    Trans. Mom.: -0.0000 X   0.0000 Y   0.3790 Z
    Strength   :     0.0511186321
    D(    4) --> V(    1) amplitude =  0.9868

 Excited state   5: excitation energy (eV) =   14.6121
 Total energy for state  5:                   -74.75235533 au
    Multiplicity: Triplet
    Trans. Mom.:  0.0000 X   0.0000 Y   0.0000 Z
    Strength   :     0.0000000000
    D(    5) --> V(    2) amplitude =  1.0000

 Excited state   6: excitation energy (eV) =   15.8541
 Total energy for state  6:                   -74.70671388 au
    Multiplicity: Singlet
    Trans. Mom.: -0.0000 X   0.0000 Y   0.0000 Z
    Strength   :     0.0000000000
    D(    5) --> V(    2) amplitude =  1.0000

 Excited state   7: excitation energy (eV) =   15.9778
 Total energy for state  7:                   -74.70216886 au
    Multiplicity: Triplet
    Trans. Mom.:  0.0000 X   0.0000 Y   0.0000 Z
    Strength   :     0.0000000000
    D(    3) --> V(    1) amplitude =  0.2159
    D(    4) --> V(    2) amplitude =  0.9764

 Excited state   8: excitation energy (eV) =   19.1418
 Total energy for state  8:                   -74.58589240 au
    Multiplicity: Singlet
    Trans. Mom.:  0.4139 X   0.0000 Y   0.0000 Z
    Strength   :     0.0803538899
    D(    3) --> V(    1) amplitude = -0.3325
    D(    4) --> V(    2) amplitude =  0.9419

 Excited state   9: excitation energy (eV) =   19.2877
 Total energy for state  9:                   -74.58052975 au
    Multiplicity: Triplet
    Trans. Mom.:  0.0000 X   0.0000 Y   0.0000 Z
    Strength   :     0.0000000000
    D(    3) --> V(    1) amplitude =  0.9732
    D(    4) --> V(    2) amplitude = -0.2161

 Excited state  10: excitation energy (eV) =   23.4943
 Total energy for state 10:                   -74.42594217 au
    Multiplicity: Singlet
    Trans. Mom.:  1.4316 X   0.0000 Y  -0.0000 Z
    Strength   :     1.1796886867
    D(    3) --> V(    1) amplitude =  0.9425
    D(    4) --> V(    2) amplitude =  0.3336

 ---------------------------------------------------

             Orbital Energies (a.u.) and Symmetries
 --------------------------------------------------------------

 Alpha MOs, Restricted
 -- Occupied --
-18.819  -0.948  -0.477  -0.205  -0.141
  1 A1    2 A1    1 B1    3 A1    1 B2

 Beta MOs, Restricted
 -- Occupied --
-18.819  -0.948  -0.477  -0.205  -0.141
  1 A1    2 A1    1 B1    3 A1    1 B2

          Ground-State Mulliken Net Atomic Charges

     Atom                 Charge (a.u.)
  ----------------------------------------
      1 O                    -0.428128
      2 H                     0.214064
      3 H                     0.214064
  ----------------------------------------
  Sum of atomic charges =     0.000000

                    Cartesian Multipole Moments
 -----------------------------------------------------------------
    Charge (ESU x 10^10)
                -0.0000
    Dipole Moment (Debye)
         X      -0.0000      Y       0.0000      Z      -1.6965
       Tot       1.6965
    Quadrupole Moments (Debye-Ang)
        XX      -4.1323     XY       0.0000     YY      -6.0464
        XZ      -0.0000     YZ       0.0000     ZZ      -5.4925

 Total job time:  0.57s(wall), 0.24s(cpu)
        *  Thank you very much for using Q-Chem.  Have a nice day.  *
