 Q-Chem 6.0 (devel), Q-Chem, Inc., Pleasanton, CA (2022)
 Q-Chem 6.0.1 for Intel X86 EM64T Linux

User input:
--------------------------------------------------------------
$comment
 TD-DFT/TDA CALCULATION
$end

$molecule
1 2
O        0.000000     0.000000     0.000000
H        0.758602     0.000000     0.504284
H       -0.758602     0.000000     0.504284
$end

$rem
!**REFERENCE***
JOBTYPE            SP
EXCHANGE           B3LYP
CORRELATION        NONE
BASIS              STO-3G
CIS_N_ROOTS        5
!CIS_SINGLETS      true
!CIS_TRIPLETS      true
CALC_SOC           2 !not available in doublets in TDDFT
STS_ANGMOM        true !orbit. ang. moment. between states
$end

--------------------------------------------------------------

             Standard Nuclear Orientation (Angstroms)
    I     Atom           X                Y                Z
 ----------------------------------------------------------------
    1      O       0.0000000000     0.0000000000     0.1008568000
    2      H      -0.7586020000    -0.0000000000    -0.4034272000
    3      H       0.7586020000     0.0000000000    -0.4034272000
 ----------------------------------------------------------------

    9     -74.9260078813      4.65e-10  Convergence criterion met
 Total energy in the final basis set =      -74.9260078813

         TDDFT/TDA Excitation Energies
 ---------------------------------------------------

 Excited state   1: excitation energy (eV) =    1.9226
 Total energy for state  1:                   -74.85535524 au
    <S**2>     :  0.7514
    Trans. Mom.: -0.0000 X  -0.1829 Y   0.0000 Z
    Strength   :     0.0015752557
    D(    4) --> S(    1) amplitude =  0.9995 beta

 Excited state   2: excitation energy (eV) =    8.5405
 Total energy for state  2:                   -74.61215178 au
    <S**2>     :  0.7509
    Trans. Mom.:  0.0000 X   0.0000 Y   0.0000 Z
    Strength   :     0.0000000000
    D(    3) --> S(    1) amplitude =  0.9989 beta

 Excited state   3: excitation energy (eV) =   15.4708
 Total energy for state  3:                   -74.35746802 au
    <S**2>     :  2.7105
    Trans. Mom.: -0.0000 X  -0.0000 Y   0.0373 Z
    Strength   :     0.0005268762
    S(    1) --> V(    1) amplitude = -0.5994 alpha
    D(    4) --> V(    1) amplitude =  0.7949 beta

 Excited state   4: excitation energy (eV) =   17.2552
 Total energy for state  4:                   -74.29189107 au
    <S**2>     :  0.7916
    Trans. Mom.:  0.0000 X  -0.0000 Y   0.3050 Z
    Strength   :     0.0393164600
    S(    1) --> V(    1) amplitude =  0.7885 alpha
    D(    4) --> V(    1) amplitude =  0.5951 beta

 Excited state   5: excitation energy (eV) =   17.2897
 Total energy for state  5:                   -74.29062289 au
    <S**2>     :  0.7506
    Trans. Mom.:  0.0000 X   0.0976 Y   0.0000 Z
    Strength   :     0.0040327910
    D(    4) --> V(    1) amplitude =  0.9727 alpha
    D(    2) --> S(    1) amplitude = -0.2321 beta

 ---------------------------------------------------

             Orbital Energies (a.u.) and Symmetries
 --------------------------------------------------------------

 Alpha MOs, Unrestricted
 -- Occupied --
-19.631  -1.586  -1.050  -0.864  -0.825
  1 A1    2 A1    1 B1    1 B2    3 A1

 Beta MOs, Unrestricted
 -- Occupied --
-19.613  -1.511  -1.027  -0.789
  1 A1    2 A1    1 B1    3 A1

          Ground-State Mulliken Net Atomic Charges

     Atom                 Charge (a.u.)    Spin (a.u.)
  --------------------------------------------------------
      1 O                     0.063008       1.063597
      2 H                     0.468496      -0.031798
      3 H                     0.468496      -0.031798
  --------------------------------------------------------
  Sum of atomic charges =     1.000000

                    Cartesian Multipole Moments
 -----------------------------------------------------------------
    Charge (ESU x 10^10)
                 4.8032
    Dipole Moment (Debye)
         X      -0.0000      Y      -0.0000      Z      -2.2195
       Tot       2.2195
    Quadrupole Moments (Debye-Ang)
        XX      -2.2735     XY       0.0000     YY      -4.6458
        XZ       0.0000     YZ      -0.0000     ZZ      -4.5083

 Total job time:  1.24s(wall), 0.23s(cpu)
        *  Thank you very much for using Q-Chem.  Have a nice day.  *
