 Q-Chem 6.0 (devel), Q-Chem, Inc., Pleasanton, CA (2022)
 Q-Chem 6.0.1 for Intel X86 EM64T Linux

User input:
--------------------------------------------------------------
$molecule
1 2
O1
H1 O1 oh
H2 O1 oh H1 hoh

oh = 0.997
hoh = 109.17
$end

$rem
JOBTYPE            sp
EXCHANGE           HF
CORRELATION        RASCI
BASIS              6-31G*
UNRESTRICTED       FALSE
RAS_ROOTS          5
SET_ITER           50
RAS_ELEC           5
RAS_ACT            5
RAS_OCC            2
CALC_SOC           TRUE
RAS_SOC_SYM_DENS   TRUE
$end

--------------------------------------------------------------

             Standard Nuclear Orientation (Angstroms)
    I     Atom           X                Y                Z
 ----------------------------------------------------------------
    1      O       0.0000000000     0.0000000000     0.1155512138
    2      H      -0.8125311840    -0.0000000000    -0.4622048550
    3      H       0.8125311840    -0.0000000000    -0.4622048550
 ----------------------------------------------------------------

   15     -75.5355457974      5.72e-06  Convergence criterion met
 Total energy in the final basis set =      -75.5355457974

             Orbital Energies (a.u.) and Symmetries
 --------------------------------------------------------------

 Alpha MOs, Restricted
 -- Doubly Occupied --
-21.116  -1.846  -1.191  -1.008
  1 A1    2 A1    1 B1    1 B2
 -- Singly Occupied (Occupied) --
 -1.174
  3 A1

 Beta MOs, Restricted
 -- Doubly Occupied --
-21.078  -1.721  -1.150  -0.960
  1 A1    2 A1    1 B1    1 B2
 -- Singly Occupied (Vacant) --
 -0.349
  3 A1

          Ground-State Mulliken Net Atomic Charges

     Atom                 Charge (a.u.)
  ----------------------------------------
      1 O                    -0.268896
      2 H                     0.634448
      3 H                     0.634448
  ----------------------------------------
  Sum of atomic charges =     1.000000

                    Cartesian Multipole Moments
 -----------------------------------------------------------------
    Charge (ESU x 10^10)
                 4.8032
    Dipole Moment (Debye)
         X       0.0000      Y       0.0000      Z      -2.0099
       Tot       2.0099
    Quadrupole Moments (Debye-Ang)
        XX      -1.5180     XY       0.0000     YY      -5.9256
        XZ      -0.0000     YZ       0.0000     ZZ      -3.2653

 Total job time:  9.74s(wall), 2.57s(cpu)
        *  Thank you very much for using Q-Chem.  Have a nice day.  *
